/home/ghuynh/autotools/examples/STRUCT/data.Pbca (written by ASE) 

24 	 atoms 
2  atom types
0.0      10.047338316949467  xlo xhi
0.0      5.2559635782230858  ylo yhi
0.0      5.0736402704507837  zlo zhi

Masses

1 15.999
2 91.224

Atoms 

     1   1     0.23300908212359683      1.2531332696129498    0.020092657386657997
     2   1      2.9213545962432983      1.9731915626938186      1.8717887514663907
     3   1     0.23300908212359683      1.3748484336727116      2.5569127926120498
     4   1      2.9213545962432983     0.65479014059184237      4.4086088866917823
     5   2      1.1580033876890905      2.8107850734004507      1.2487952561261182
     6   1      2.1023139170553593      4.6011733518053619      1.8717887514663907
     7   2      1.1580033876890905      5.0731602081082965      3.7856153913515098
     8   1      2.1023139170553593      3.2827719297033857      4.4086088866917823
     9   2      3.8656651256095671      0.1828032842889078      1.2487952561261182
    10   1      5.2566782405983306      1.2531332696129498      2.5167276091287296
    11   2      3.8656651256095671      2.4451784189967536      3.7856153913515098
    12   1      5.2566782405983306      1.3748484336727116      5.0535477443541215
    13   2      6.1816725461638233      2.8107850734004507      1.2880250103892694
    14   1      4.7906594311750599      3.8811150587244931    0.020092657386657997
    15   2      6.1816725461638233      5.0731602081082965      3.8248451456146615
    16   1      4.7906594311750599      4.0028302227842545      2.5569127926120498
    17   2      8.8893342840843008      0.1828032842889078      1.2880250103892694
    18   1      7.9450237547180311      1.9731915626938186     0.66503151504899694
    19   2      8.8893342840843008      2.4451784189967536      3.8248451456146615
    20   1      7.9450237547180311     0.65479014059184237       3.201851650274389
    21   1      9.8143285896497936      3.8811150587244931      2.5167276091287296
    22   1      7.1259830755300939      4.6011733518053619     0.66503151504899694
    23   1      9.8143285896497936      4.0028302227842545      5.0535477443541215
    24   1      7.1259830755300939      3.2827719297033857       3.201851650274389
