/home/ghuynh/autotools/examples/STRUCT/data.CUBIC (written by ASE) 

12 	 atoms 
2  atom types
0.0      5.0687707566147582  xlo xhi
0.0      5.0687707566147582  ylo yhi
0.0      5.0687707566147582  zlo zhi

Masses

1 15.999
2 91.224

Atoms 

     1   1      1.2671924488839403      1.2671924488839403      1.2671924488839386
     2   1      1.2671924488839403      1.2671924488839401      3.8015778271913176
     3   2      2.5343851380376297      2.5343851380376297      5.0687705163450074
     4   1      1.2671924488839403       3.801577827191319      1.2671924488839386
     5   2      2.5343851380376297      5.0687705163450083      2.5343851380376279
     6   1      1.2671924488839403      3.8015778271913194      3.8015778271913176
     7   1      3.8015778271913194      1.2671924488839401      1.2671924488839386
     8   2      5.0687705163450092      2.5343851380376297      2.5343851380376279
     9   1      3.8015778271913194      1.2671924488839403      3.8015778271913176
    10   1      3.8015778271913194      3.8015778271913194      1.2671924488839386
    11   1      3.8015778271913194       3.801577827191319      3.8015778271913176
    12   2      5.0687705163450092      5.0687705163450083      5.0687705163450074
