/home/ghuynh/autotools/examples/STRUCT/data.MONO (written by ASE) 

12 	 atoms 
2  atom types
0.0       5.153201651046821  xlo xhi
0.0      5.1946627689631892  ylo yhi
0.0      5.2356327203105852  zlo zhi
                      0    -0.91215206161995965                       0  xy xz yz

Masses

1 15.999
2 91.224

Atoms 

     1   2    -0.46682449575933793     0.01039198606309677      5.2139286106671729
     2   2       2.215391507304437      4.7618714876410806       3.031246056118186
     3   2      2.6714675381144168      2.6077233705446909     0.41342969596289336
     4   2   -0.010748464949358105      2.1645401031594851      2.5961122505118803
     5   1      4.3815372593281765      1.4852460635129745     0.70742800832464248
     6   1      1.0930999987840142      3.7195753356841879      1.3984307484763843
     7   1      3.4323834648837024       3.287017410191202      2.3021139381501312
     8   1      2.9763074340737226      4.0825774479945691      4.9199302983054238
     9   1      3.9254612285181971     0.68968602570960735      3.3252443684799351
    10   1      1.5676190743810445      1.0526881380199891      1.6111111979983892
    11   1     0.63702396797403438      3.6500195225015837       4.016247108631676
    12   1      1.1115430435710643      1.1222439512025932       4.228927558153682
