/home/ghuynh/autotools/examples/STRUCT/data.Pmna (written by ASE) 

12 	 atoms 
2  atom types
0.0      5.5576586573795748  xlo xhi
0.0      3.3225031758021144  ylo yhi
0.0      6.4763038150145187  zlo zhi

Masses

1 15.999
2 91.224

Atoms 

     1   2      1.3702804349452506     0.83062628303838604     0.71867150080960629
     2   1      2.0006688479403714     0.83062628303838604      2.7572661411776709
     3   1      2.6432724486626729     0.83062628303838604      5.4317450114639385
     4   2      1.4085473530285677      2.4918778709394429      3.9568234083168656
     5   1      0.1355553393111455      2.4918778709394429      2.1935931039566796
     6   1     0.77815894003344699      2.4918778709394429      5.9954180486849307
     7   1      4.7794981766301579     0.83062628303838604     0.48088662776638152
     8   2      4.1491097636350371     0.83062628303838604      2.5194812681344461
     9   1      5.4221017773524611     0.83062628303838604      4.2827115724946321
    10   1      2.9143846680009324      2.4918778709394429       1.044559664987373
    11   1      3.5569882687232339      2.4918778709394429      3.7190385352736408
    12   2      4.1873766817183551      2.4918778709394429      5.7576331756417058
