/home/ghuynh/autotools/examples/STRUCT/data.I41amd (written by ASE) 

12 	 atoms 
2  atom types
0.0      3.9968078370620357  xlo xhi
0.0      3.9968078370620357  ylo yhi
0.0      10.702288799987032  zlo zhi

Masses

1 15.999
2 91.224

Atoms 

     1   1  2.5019097904532828e-11  2.4756197092301591e-11      8.5550438747614006
     2   1      1.9984039185560367      1.9984039185557738      7.4983893251941716
     3   1      1.9984039185560367  2.4756197092301591e-11      10.173961525190929
     4   1      1.9984039185560367  2.4756197092301591e-11      5.8794716747646429
     5   1      1.9984039185560367      1.9984039185557738      3.2038994747678844
     6   1  2.5019097904532828e-11  2.4756197092301591e-11      2.1472449252006554
     7   1  2.5019097904532828e-11      1.9984039185557738       4.822817125197413
     8   1  2.5019097904532828e-11      1.9984039185557738     0.52832727477112673
     9   2  2.5019097904532828e-11  2.4756197092301591e-11      10.702288799974543
    10   2      1.9984039185560367  2.4756197092301591e-11      8.0267165999777852
    11   2      1.9984039185560367      1.9984039185557738      5.3511443999810275
    12   2  2.5019097904532828e-11      1.9984039185557738       2.675572199984269
