/home/ghuynh/autotools/examples/STRUCT/data.TETRA (written by ASE) 

12 	 atoms 
2  atom types
0.0      5.0755555367778626  xlo xhi
0.0      5.0755555367778626  ylo yhi
0.0      5.1823220077713259  zlo zhi

Masses

1 15.999
2 91.224

Atoms 

     1   2      5.0755554309159079       5.075555435258635  1.3876764271003594e-07
     2   2      5.0755554309159079      2.5377776668697036      2.5911611426533057
     3   2      2.5377776625269766       5.075555435258635      2.5911611426533057
     4   2      2.5377776625269766      2.5377776668697036  1.3876764271003594e-07
     5   1      1.2688887783325109       1.268888782675238       1.040577145956882
     6   1      3.8066665467214422      3.8066665510641693       1.040577145956882
     7   1      3.8066665467214422       1.268888782675238      4.1417451393497293
     8   1      1.2688887783325109      3.8066665510641693      4.1417451393497293
     9   1      1.2688887783325109       1.268888782675238      3.6317381498425458
    10   1      3.8066665467214422      3.8066665510641693      3.6317381498425458
    11   1      3.8066665467214422       1.268888782675238      1.5505841354640664
    12   1      1.2688887783325109      3.8066665510641693      1.5505841354640664
