/home/ghuynh/autotools/examples/STRUCT/data.Pbc21 (written by ASE) 

12 	 atoms 
2  atom types
0.0      5.0547451683399824  xlo xhi
0.0      5.2635229283235052  ylo yhi
0.0      5.0713802578145337  zlo zhi

Masses

1 15.999
2 91.224

Atoms 

     1   2      1.3532508814841524     0.17101349820710787      1.2608772803931938
     2   1     0.35396982429343726      0.6971270980541826       3.102811585949611
     3   1     0.35396982429343726      1.9346283353002161     0.56712145704234462
     4   2      1.3532508814841524      2.4607419351472908      3.7965674093004607
     5   1      2.3334986256510635      4.0327444548563953      2.5275417944739234
     6   1      2.3334986256510635       3.862533906821509      5.0632319233811902
     7   1      2.7212451442799019      1.4009829906946423      2.5275417944739234
     8   1      2.7212451442799019      1.2307724426597559      5.0632319233811902
     9   2       3.701492888446813      2.8027749623688605      1.2608772803931938
    10   1      4.7007739456375282      3.3288885622159352       3.102811585949611
    11   1      4.7007739456375282      4.5663897994619687     0.56712145704234462
    12   2       3.701492888446813      5.0925033993090434      3.7965674093004607
