/home/ghuynh/autotools/examples/STRUCT/data.P21m (written by ASE) 

12 	 atoms 
2  atom types
0.0      7.3593925795795316  xlo xhi
0.0      3.4729779578487538  ylo yhi
0.0      5.4815118438219486  zlo zhi
-1.3595756952178038e-16     -1.9726900514598182  7.6163671240652643e-33  xy xz yz

Masses

1 15.999
2 91.224

Atoms 

     1   1    -0.19286473945320903     2.3954052619235e-07      4.5628262128129728
     2   1      1.4539679939991883      1.7364892184649032        1.43401178748781
     3   2     0.91856453713507569      1.7364892184649032      3.4928464862179811
     4   2      2.5251966305413882     2.3954052619235e-07       1.095054299713093
     5   1      1.9897931736772756     2.3954052619235e-07      3.1538889984432639
     6   1      3.6366259071296723      1.7364892184649032    0.025074573118102569
     7   1      4.4731765760664652     2.3954052619235e-07      1.8220702909019983
     8   1      6.6558344891969501     2.3954052619235e-07     0.41313307653228953
     9   2      5.2185478946012456     2.3954052619235e-07      3.8358102216240688
    10   2      5.5846058526547502      1.7364892184649032     0.75209056430700671
    11   1      4.1473192580590457      1.7364892184649032      4.1747677093987861
    12   1      6.3299771711895296      1.7364892184649032       2.765830495029078
